<?xml version="1.0" encoding="UTF-8"?>

<!-- generated on Tue 26 Apr 2022 03:01:35 AM UTC by Eclipse SUMO GUI Version 1.8.0
<configuration xmlns:xsi="http://www.w3.org/2001/XMLSchema-instance" xsi:noNamespaceSchemaLocation="http://sumo.dlr.de/xsd/sumoConfiguration.xsd">

    <input>
        <net-file value="fyp.net.xml"/>
        <route-files value="fyp.rou.xml"/>
    </input>

    <output>
        <tripinfo-output value="tripinfo.xml"/>
    </output>

    <time>
        <step-length value="0.1"/>
    </time>

    <report>
        <xml-validation value="never"/>
        <xml-validation.net value="never"/>
        <xml-validation.routes value="never"/>
    </report>

    <traci_server>
        <remote-port value="33935"/>
    </traci_server>

    <gui_only>
        <start value="true"/>
        <tracker-interval value="0.1"/>
    </gui_only>

</configuration>
-->

<tripinfos xmlns:xsi="http://www.w3.org/2001/XMLSchema-instance" xsi:noNamespaceSchemaLocation="http://sumo.dlr.de/xsd/tripinfo_file.xsd">
    <tripinfo id="8" depart="8.00" departLane="303265566#2_0" departPos="5.10" departSpeed="0.00" departDelay="0.00" arrival="46.60" arrivalLane="609360791#1_0" arrivalPos="24.53" arrivalSpeed="12.19" duration="38.60" routeLength="419.25" waitingTime="0.00" waitingCount="0" stopTime="0.00" timeLoss="3.88" rerouteNo="0" devices="tripinfo_8" vType="DEFAULT_VEHTYPE" speedFactor="0.89" vaporized=""/>
    <tripinfo id="43" depart="43.00" departLane="932248828#8_0" departPos="5.10" departSpeed="0.00" departDelay="0.00" arrival="72.10" arrivalLane="54139756#6-AddedOnRampEdge_0" arrivalPos="94.15" arrivalSpeed="32.69" duration="29.10" routeLength="559.35" waitingTime="0.00" waitingCount="0" stopTime="0.00" timeLoss="11.44" rerouteNo="0" devices="tripinfo_43" vType="DEFAULT_VEHTYPE" speedFactor="1.18" vaporized=""/>
    <tripinfo id="27" depart="27.00" departLane="849995889#6_0" departPos="5.10" departSpeed="0.00" departDelay="0.00" arrival="73.40" arrivalLane="610344813#1_0" arrivalPos="277.04" arrivalSpeed="24.17" duration="46.40" routeLength="780.62" waitingTime="0.00" waitingCount="0" stopTime="0.00" timeLoss="11.59" rerouteNo="0" devices="tripinfo_27" vType="DEFAULT_VEHTYPE" speedFactor="0.87" vaporized=""/>
    <tripinfo id="39" depart="39.00" departLane="303268062#1_0" departPos="5.10" departSpeed="0.00" departDelay="0.00" arrival="76.60" arrivalLane="303268054#1_0" arrivalPos="23.37" arrivalSpeed="22.00" duration="37.60" routeLength="542.40" waitingTime="0.00" waitingCount="0" stopTime="0.00" timeLoss="14.49" rerouteNo="0" devices="tripinfo_39" vType="DEFAULT_VEHTYPE" speedFactor="0.99" vaporized=""/>
    <tripinfo id="29" depart="29.00" departLane="303265562#1_0" departPos="5.10" departSpeed="0.00" departDelay="0.00" arrival="89.80" arrivalLane="53436221#3_0" arrivalPos="293.63" arrivalSpeed="26.34" duration="60.80" routeLength="799.21" waitingTime="0.00" waitingCount="0" stopTime="0.00" timeLoss="19.24" rerouteNo="0" devices="tripinfo_29" vType="DEFAULT_VEHTYPE" speedFactor="0.95" vaporized=""/>
    <tripinfo id="55" depart="55.00" departLane="927798098#4_0" departPos="5.10" departSpeed="0.00" departDelay="0.00" arrival="91.00" arrivalLane="303268062#1_0" arrivalPos="12.07" arrivalSpeed="19.96" duration="36.00" routeLength="674.76" waitingTime="0.00" waitingCount="0" stopTime="0.00" timeLoss="8.63" rerouteNo="0" devices="tripinfo_55" vType="DEFAULT_VEHTYPE" speedFactor="0.90" vaporized=""/>
    <tripinfo id="64" depart="64.00" departLane="927798098#4_0" departPos="5.10" departSpeed="0.00" departDelay="0.00" arrival="94.60" arrivalLane="927798098#15_0" arrivalPos="20.69" arrivalSpeed="24.90" duration="30.60" routeLength="554.48" waitingTime="0.00" waitingCount="0" stopTime="0.00" timeLoss="8.36" rerouteNo="0" devices="tripinfo_64" vType="DEFAULT_VEHTYPE" speedFactor="0.90" vaporized=""/>
    <tripinfo id="70" depart="73.70" departLane="54139756#3_0" departPos="5.10" departSpeed="0.00" departDelay="3.70" arrival="99.20" arrivalLane="608814650#1_0" arrivalPos="14.21" arrivalSpeed="11.02" duration="25.50" routeLength="345.60" waitingTime="0.00" waitingCount="0" stopTime="0.00" timeLoss="12.35" rerouteNo="0" devices="tripinfo_70" vType="DEFAULT_VEHTYPE" speedFactor="1.02" vaporized=""/>
    <tripinfo id="67" depart="67.00" departLane="303137276#0_0" departPos="5.10" departSpeed="0.00" departDelay="0.00" arrival="105.20" arrivalLane="54139756#5_0" arrivalPos="8.36" arrivalSpeed="26.91" duration="38.20" routeLength="482.49" waitingTime="0.00" waitingCount="0" stopTime="0.00" timeLoss="8.00" rerouteNo="0" devices="tripinfo_67" vType="DEFAULT_VEHTYPE" speedFactor="0.97" vaporized=""/>
    <tripinfo id="89" depart="89.00" departLane="54139756#0_0" departPos="5.10" departSpeed="0.00" departDelay="0.00" arrival="106.50" arrivalLane="54139756#2_0" arrivalPos="34.31" arrivalSpeed="26.95" duration="17.50" routeLength="214.85" waitingTime="0.00" waitingCount="0" stopTime="0.00" timeLoss="9.76" rerouteNo="0" devices="tripinfo_89" vType="DEFAULT_VEHTYPE" speedFactor="1.01" vaporized=""/>
    <tripinfo id="40" depart="40.00" departLane="608814650#3_0" departPos="5.10" departSpeed="0.00" departDelay="0.00" arrival="110.20" arrivalLane="303268062#1_0" arrivalPos="12.07" arrivalSpeed="22.61" duration="70.20" routeLength="853.98" waitingTime="1.00" waitingCount="1" stopTime="0.00" timeLoss="13.25" rerouteNo="0" devices="tripinfo_40" vType="DEFAULT_VEHTYPE" speedFactor="1.02" vaporized=""/>
    <tripinfo id="77" depart="77.00" departLane="303265559_0" departPos="5.10" departSpeed="0.00" departDelay="0.00" arrival="112.00" arrivalLane="303265566#2_0" arrivalPos="147.42" arrivalSpeed="14.36" duration="35.00" routeLength="452.59" waitingTime="0.00" waitingCount="0" stopTime="0.00" timeLoss="3.95" rerouteNo="0" devices="tripinfo_77" vType="DEFAULT_VEHTYPE" speedFactor="1.04" vaporized=""/>
    <tripinfo id="0" depart="0.00" departLane="297396114#0_0" departPos="5.10" departSpeed="0.00" departDelay="0.00" arrival="112.10" arrivalLane="297396114#9_1" arrivalPos="20.76" arrivalSpeed="29.09" duration="112.10" routeLength="693.78" waitingTime="70.70" waitingCount="1" stopTime="0.00" timeLoss="88.50" rerouteNo="0" devices="tripinfo_0" vType="DEFAULT_VEHTYPE" speedFactor="1.06" vaporized=""/>
    <tripinfo id="1" depart="2.60" departLane="297396114#0_0" departPos="5.10" departSpeed="0.00" departDelay="1.60" arrival="113.30" arrivalLane="297396114#9_1" arrivalPos="20.76" arrivalSpeed="26.02" duration="110.70" routeLength="693.78" waitingTime="63.70" waitingCount="1" stopTime="0.00" timeLoss="84.03" rerouteNo="0" devices="tripinfo_1" vType="DEFAULT_VEHTYPE" speedFactor="0.94" vaporized=""/>
    <tripinfo id="2" depart="5.20" departLane="297396114#0_0" departPos="5.10" departSpeed="0.00" departDelay="3.20" arrival="114.40" arrivalLane="297396114#9_1" arrivalPos="20.76" arrivalSpeed="27.33" duration="109.20" routeLength="693.78" waitingTime="61.10" waitingCount="1" stopTime="0.00" timeLoss="84.41" rerouteNo="0" devices="tripinfo_2" vType="DEFAULT_VEHTYPE" speedFactor="1.01" vaporized=""/>
    <tripinfo id="48" depart="48.00" departLane="932248828#8_0" departPos="5.10" departSpeed="0.00" departDelay="0.00" arrival="116.50" arrivalLane="608814649#2_0" arrivalPos="45.83" arrivalSpeed="14.30" duration="68.50" routeLength="1005.00" waitingTime="0.00" waitingCount="0" stopTime="0.00" timeLoss="12.34" rerouteNo="0" devices="tripinfo_48" vType="DEFAULT_VEHTYPE" speedFactor="1.03" vaporized=""/>
    <tripinfo id="66" depart="66.70" departLane="927798098#4_0" departPos="5.10" departSpeed="0.00" departDelay="0.70" arrival="117.10" arrivalLane="928691532#0_1" arrivalPos="30.51" arrivalSpeed="28.39" duration="50.40" routeLength="905.80" waitingTime="0.00" waitingCount="0" stopTime="0.00" timeLoss="17.93" rerouteNo="0" devices="tripinfo_66" vType="DEFAULT_VEHTYPE" speedFactor="1.02" vaporized=""/>
    <tripinfo id="91" depart="91.00" departLane="932248828#6_0" departPos="0.20" departSpeed="0.00" departDelay="0.00" arrival="120.20" arrivalLane="303137276#1_0" arrivalPos="70.28" arrivalSpeed="14.31" duration="29.20" routeLength="424.86" waitingTime="0.00" waitingCount="0" stopTime="0.00" timeLoss="8.51" rerouteNo="0" devices="tripinfo_91" vType="DEFAULT_VEHTYPE" speedFactor="1.03" vaporized=""/>
    <tripinfo id="87" depart="87.00" departLane="927798098#11_0" departPos="5.10" departSpeed="0.00" departDelay="0.00" arrival="125.10" arrivalLane="303265565#4_0" arrivalPos="38.31" arrivalSpeed="14.32" duration="38.10" routeLength="458.73" waitingTime="0.00" waitingCount="0" stopTime="0.00" timeLoss="10.99" rerouteNo="0" devices="tripinfo_87" vType="DEFAULT_VEHTYPE" speedFactor="1.03" vaporized=""/>
    <tripinfo id="72" depart="72.00" departLane="54139756#0_0" departPos="5.10" departSpeed="0.00" departDelay="0.00" arrival="130.00" arrivalLane="303265565#8_0" arrivalPos="216.50" arrivalSpeed="13.00" duration="58.00" routeLength="759.11" waitingTime="0.00" waitingCount="0" stopTime="0.00" timeLoss="8.33" rerouteNo="0" devices="tripinfo_72" vType="DEFAULT_VEHTYPE" speedFactor="0.94" vaporized=""/>
    <tripinfo id="115" depart="115.00" departLane="303137273_0" departPos="5.10" departSpeed="0.00" departDelay="0.00" arrival="134.80" arrivalLane="303265565#0_0" arrivalPos="127.35" arrivalSpeed="15.51" duration="19.80" routeLength="211.70" waitingTime="0.00" waitingCount="0" stopTime="0.00" timeLoss="5.50" rerouteNo="0" devices="tripinfo_115" vType="DEFAULT_VEHTYPE" speedFactor="1.12" vaporized=""/>
    <tripinfo id="88" depart="88.00" departLane="303137276#1_0" departPos="5.10" departSpeed="0.00" departDelay="0.00" arrival="136.10" arrivalLane="54139756#1_0" arrivalPos="62.57" arrivalSpeed="21.91" duration="48.10" routeLength="668.23" waitingTime="0.00" waitingCount="0" stopTime="0.00" timeLoss="15.16" rerouteNo="0" devices="tripinfo_88" vType="DEFAULT_VEHTYPE" speedFactor="0.98" vaporized=""/>
    <tripinfo id="127" depart="127.00" departLane="932248828#8_0" departPos="5.10" departSpeed="0.00" departDelay="0.00" arrival="136.70" arrivalLane="932248828#8_0" arrivalPos="98.81" arrivalSpeed="19.03" duration="9.70" routeLength="93.71" waitingTime="0.00" waitingCount="0" stopTime="0.00" timeLoss="6.13" rerouteNo="0" devices="tripinfo_127" vType="DEFAULT_VEHTYPE" speedFactor="0.96" vaporized=""/>
    <tripinfo id="120" depart="120.00" departLane="54139756#0_0" departPos="5.10" departSpeed="0.00" departDelay="0.00" arrival="139.10" arrivalLane="609360791#0_0" arrivalPos="25.65" arrivalSpeed="13.23" duration="19.10" routeLength="207.60" waitingTime="0.00" waitingCount="0" stopTime="0.00" timeLoss="3.65" rerouteNo="0" devices="tripinfo_120" vType="DEFAULT_VEHTYPE" speedFactor="0.95" vaporized=""/>
    <tripinfo id="51" depart="51.00" departLane="925350659#1_0" departPos="5.10" departSpeed="0.00" departDelay="0.00" arrival="139.20" arrivalLane="608814649#3_1" arrivalPos="0.63" arrivalSpeed="14.39" duration="88.20" routeLength="1331.36" waitingTime="0.00" waitingCount="0" stopTime="0.00" timeLoss="19.22" rerouteNo="0" devices="tripinfo_51" vType="DEFAULT_VEHTYPE" speedFactor="1.04" vaporized=""/>
    <tripinfo id="99" depart="99.00" departLane="932248828#8_0" departPos="5.10" departSpeed="0.00" departDelay="0.00" arrival="139.30" arrivalLane="927798098#15_0" arrivalPos="20.69" arrivalSpeed="9.83" duration="40.30" routeLength="485.37" waitingTime="0.00" waitingCount="0" stopTime="0.00" timeLoss="11.32" rerouteNo="0" devices="tripinfo_99" vType="DEFAULT_VEHTYPE" speedFactor="0.98" vaporized=""/>
    <tripinfo id="97" depart="97.00" departLane="54139756#10-AddedOffRampEdge_0" departPos="5.10" departSpeed="0.00" departDelay="0.00" arrival="146.90" arrivalLane="927798098#2_0" arrivalPos="92.99" arrivalSpeed="26.84" duration="49.90" routeLength="954.95" waitingTime="0.00" waitingCount="0" stopTime="0.00" timeLoss="12.17" rerouteNo="0" devices="tripinfo_97" vType="DEFAULT_VEHTYPE" speedFactor="0.97" vaporized=""/>
    <tripinfo id="69" depart="69.00" departLane="927798096#6_0" departPos="5.10" departSpeed="0.00" departDelay="0.00" arrival="150.30" arrivalLane="303265560#1_0" arrivalPos="51.47" arrivalSpeed="15.44" duration="81.30" routeLength="1515.98" waitingTime="0.00" waitingCount="0" stopTime="0.00" timeLoss="19.44" rerouteNo="0" devices="tripinfo_69" vType="DEFAULT_VEHTYPE" speedFactor="1.12" vaporized=""/>
    <tripinfo id="76" depart="76.00" departLane="54139756#10_0" departPos="5.10" departSpeed="0.00" departDelay="0.00" arrival="151.50" arrivalLane="54139756#7_0" arrivalPos="26.05" arrivalSpeed="11.14" duration="75.50" routeLength="1178.74" waitingTime="0.00" waitingCount="0" stopTime="0.00" timeLoss="23.70" rerouteNo="0" devices="tripinfo_76" vType="DEFAULT_VEHTYPE" speedFactor="0.91" vaporized=""/>
    <tripinfo id="90" depart="90.00" departLane="927798096#2-AddedOffRampEdge_0" departPos="5.10" departSpeed="0.00" departDelay="0.00" arrival="152.00" arrivalLane="849995889#8_0" arrivalPos="31.68" arrivalSpeed="30.15" duration="62.00" routeLength="1252.60" waitingTime="0.00" waitingCount="0" stopTime="0.00" timeLoss="18.80" rerouteNo="0" devices="tripinfo_90" vType="DEFAULT_VEHTYPE" speedFactor="1.09" vaporized=""/>
    <tripinfo id="59" depart="62.50" departLane="610344813#1_0" departPos="5.10" departSpeed="0.00" departDelay="3.50" arrival="152.40" arrivalLane="303265561_0" arrivalPos="38.44" arrivalSpeed="25.85" duration="89.90" routeLength="1621.06" waitingTime="0.00" waitingCount="0" stopTime="0.00" timeLoss="29.99" rerouteNo="0" devices="tripinfo_59" vType="DEFAULT_VEHTYPE" speedFactor="1.17" vaporized=""/>
    <tripinfo id="79" depart="79.00" departLane="303265566#4_0" departPos="5.10" departSpeed="0.00" departDelay="0.00" arrival="152.80" arrivalLane="303265566#2_0" arrivalPos="147.42" arrivalSpeed="14.10" duration="73.80" routeLength="969.15" waitingTime="0.00" waitingCount="0" stopTime="0.00" timeLoss="13.28" rerouteNo="0" devices="tripinfo_79" vType="DEFAULT_VEHTYPE" speedFactor="1.02" vaporized=""/>
    <tripinfo id="94" depart="94.00" departLane="303265565#0_0" departPos="5.10" departSpeed="0.00" departDelay="0.00" arrival="155.20" arrivalLane="54139756#10-AddedOffRampEdge_0" arrivalPos="94.39" arrivalSpeed="28.12" duration="61.20" routeLength="902.74" waitingTime="0.00" waitingCount="0" stopTime="0.00" timeLoss="16.71" rerouteNo="0" devices="tripinfo_94" vType="DEFAULT_VEHTYPE" speedFactor="1.02" vaporized=""/>
    <tripinfo id="61" depart="61.00" departLane="927798096#8_0" departPos="5.10" departSpeed="0.00" departDelay="0.00" arrival="156.90" arrivalLane="608814649#2_0" arrivalPos="45.83" arrivalSpeed="15.12" duration="95.90" routeLength="1611.03" waitingTime="0.00" waitingCount="0" stopTime="0.00" timeLoss="18.11" rerouteNo="0" devices="tripinfo_61" vType="DEFAULT_VEHTYPE" speedFactor="1.10" vaporized=""/>
    <tripinfo id="84" depart="84.00" departLane="303265565#8_0" departPos="5.10" departSpeed="0.00" departDelay="0.00" arrival="160.90" arrivalLane="303265560#1_0" arrivalPos="51.47" arrivalSpeed="14.62" duration="76.90" routeLength="838.34" waitingTime="7.40" waitingCount="1" stopTime="0.00" timeLoss="27.14" rerouteNo="0" devices="tripinfo_84" vType="DEFAULT_VEHTYPE" speedFactor="1.06" vaporized=""/>
    <tripinfo id="117" depart="117.00" departLane="303265566#5_0" departPos="5.10" departSpeed="0.00" departDelay="0.00" arrival="163.40" arrivalLane="303265559_0" arrivalPos="25.32" arrivalSpeed="16.04" duration="46.40" routeLength="758.12" waitingTime="0.00" waitingCount="0" stopTime="0.00" timeLoss="10.07" rerouteNo="0" devices="tripinfo_117" vType="DEFAULT_VEHTYPE" speedFactor="1.07" vaporized=""/>
    <tripinfo id="126" depart="126.00" departLane="303137034_0" departPos="5.10" departSpeed="0.00" departDelay="0.00" arrival="167.30" arrivalLane="54139756#11_0" arrivalPos="70.96" arrivalSpeed="29.46" duration="41.30" routeLength="739.45" waitingTime="0.00" waitingCount="0" stopTime="0.00" timeLoss="13.15" rerouteNo="0" devices="tripinfo_126" vType="DEFAULT_VEHTYPE" speedFactor="1.06" vaporized=""/>
    <tripinfo id="86" depart="86.00" departLane="54139756#2-AddedOnRampEdge_0" departPos="5.10" departSpeed="0.00" departDelay="0.00" arrival="169.30" arrivalLane="927798096#9_0" arrivalPos="32.50" arrivalSpeed="26.96" duration="83.30" routeLength="1640.29" waitingTime="0.00" waitingCount="0" stopTime="0.00" timeLoss="20.13" rerouteNo="0" devices="tripinfo_86" vType="DEFAULT_VEHTYPE" speedFactor="0.98" vaporized=""/>
    <tripinfo id="131" depart="132.20" departLane="53436221#1_0" departPos="5.10" departSpeed="0.00" departDelay="1.20" arrival="175.20" arrivalLane="303265562#0_0" arrivalPos="50.36" arrivalSpeed="13.98" duration="43.00" routeLength="559.97" waitingTime="5.50" waitingCount="1" stopTime="0.00" timeLoss="18.81" rerouteNo="0" devices="tripinfo_131" vType="DEFAULT_VEHTYPE" speedFactor="1.01" vaporized=""/>
    <tripinfo id="75" depart="75.00" departLane="932248828#8_0" departPos="5.10" departSpeed="0.00" departDelay="0.00" arrival="176.70" arrivalLane="849995889#5_0" arrivalPos="90.55" arrivalSpeed="24.65" duration="101.70" routeLength="1700.30" waitingTime="0.00" waitingCount="0" stopTime="0.00" timeLoss="29.36" rerouteNo="0" devices="tripinfo_75" vType="DEFAULT_VEHTYPE" speedFactor="0.91" vaporized=""/>
    <tripinfo id="138" depart="138.00" departLane="303137278#1_0" departPos="5.10" departSpeed="0.00" departDelay="0.00" arrival="178.10" arrivalLane="608814650#1_0" arrivalPos="14.21" arrivalSpeed="10.97" duration="40.10" routeLength="617.27" waitingTime="0.00" waitingCount="0" stopTime="0.00" timeLoss="10.46" rerouteNo="0" devices="tripinfo_138" vType="DEFAULT_VEHTYPE" speedFactor="0.94" vaporized=""/>
    <tripinfo id="32" depart="32.00" departLane="927798098#16_0" departPos="5.10" departSpeed="0.00" departDelay="0.00" arrival="181.60" arrivalLane="927798096#8_1" arrivalPos="80.02" arrivalSpeed="25.76" duration="149.60" routeLength="1193.56" waitingTime="70.40" waitingCount="2" stopTime="0.00" timeLoss="99.84" rerouteNo="0" devices="tripinfo_32" vType="DEFAULT_VEHTYPE" speedFactor="0.93" vaporized=""/>
    <tripinfo id="123" depart="124.60" departLane="303265566#5_0" departPos="5.10" departSpeed="0.00" departDelay="1.60" arrival="181.90" arrivalLane="53436222#1_0" arrivalPos="31.06" arrivalSpeed="22.40" duration="57.30" routeLength="777.27" waitingTime="0.00" waitingCount="0" stopTime="0.00" timeLoss="15.55" rerouteNo="0" devices="tripinfo_123" vType="DEFAULT_VEHTYPE" speedFactor="1.01" vaporized=""/>
    <tripinfo id="139" depart="139.00" departLane="303270059#0_0" departPos="5.10" departSpeed="0.00" departDelay="0.00" arrival="189.00" arrivalLane="610344813#0_0" arrivalPos="79.32" arrivalSpeed="18.83" duration="50.00" routeLength="701.60" waitingTime="0.00" waitingCount="0" stopTime="0.00" timeLoss="23.58" rerouteNo="0" devices="tripinfo_139" vType="DEFAULT_VEHTYPE" speedFactor="1.10" vaporized=""/>
    <tripinfo id="140" depart="140.00" departLane="927798096#2_0" departPos="5.10" departSpeed="0.00" departDelay="0.00" arrival="189.00" arrivalLane="303265565#6_0" arrivalPos="12.69" arrivalSpeed="14.28" duration="49.00" routeLength="727.66" waitingTime="0.00" waitingCount="0" stopTime="0.00" timeLoss="11.64" rerouteNo="0" devices="tripinfo_140" vType="DEFAULT_VEHTYPE" speedFactor="1.03" vaporized=""/>
    <tripinfo id="157" depart="157.00" departLane="927798096#8_0" departPos="5.10" departSpeed="0.00" departDelay="0.00" arrival="189.10" arrivalLane="927798098#5_0" arrivalPos="11.79" arrivalSpeed="20.70" duration="32.10" routeLength="462.52" waitingTime="0.00" waitingCount="0" stopTime="0.00" timeLoss="15.64" rerouteNo="0" devices="tripinfo_157" vType="DEFAULT_VEHTYPE" speedFactor="1.02" vaporized=""/>
    <tripinfo id="130" depart="130.00" departLane="927798098#5_0" departPos="5.10" departSpeed="0.00" departDelay="0.00" arrival="191.80" arrivalLane="927798098#4_0" arrivalPos="61.48" arrivalSpeed="24.13" duration="61.80" routeLength="1198.25" waitingTime="0.00" waitingCount="0" stopTime="0.00" timeLoss="21.43" rerouteNo="0" devices="tripinfo_130" vType="DEFAULT_VEHTYPE" speedFactor="1.10" vaporized=""/>
    <tripinfo id="153" depart="153.00" departLane="303270073_0" departPos="5.10" departSpeed="0.00" departDelay="0.00" arrival="192.40" arrivalLane="927798098#7_0" arrivalPos="91.49" arrivalSpeed="24.90" duration="39.40" routeLength="489.42" waitingTime="5.00" waitingCount="1" stopTime="0.00" timeLoss="23.78" rerouteNo="0" devices="tripinfo_153" vType="DEFAULT_VEHTYPE" speedFactor="1.23" vaporized=""/>
    <tripinfo id="165" depart="167.50" departLane="927798098#12_0" departPos="5.10" departSpeed="0.00" departDelay="2.50" arrival="192.80" arrivalLane="303268062#1_0" arrivalPos="12.07" arrivalSpeed="17.82" duration="25.30" routeLength="298.43" waitingTime="0.00" waitingCount="0" stopTime="0.00" timeLoss="15.42" rerouteNo="0" devices="tripinfo_165" vType="DEFAULT_VEHTYPE" speedFactor="1.13" vaporized=""/>
    <tripinfo id="49" depart="49.00" departLane="932248828#2_0" departPos="5.10" departSpeed="0.00" departDelay="0.00" arrival="194.10" arrivalLane="927798098#2_0" arrivalPos="92.99" arrivalSpeed="26.52" duration="145.10" routeLength="1236.07" waitingTime="75.00" waitingCount="2" stopTime="0.00" timeLoss="96.48" rerouteNo="0" devices="tripinfo_49" vType="DEFAULT_VEHTYPE" speedFactor="0.96" vaporized=""/>
    <tripinfo id="102" depart="107.60" departLane="54139756#5_0" departPos="5.10" departSpeed="0.00" departDelay="5.60" arrival="194.40" arrivalLane="303265565#8_0" arrivalPos="216.50" arrivalSpeed="13.92" duration="86.80" routeLength="1153.52" waitingTime="0.00" waitingCount="0" stopTime="0.00" timeLoss="21.90" rerouteNo="0" devices="tripinfo_102" vType="DEFAULT_VEHTYPE" speedFactor="1.01" vaporized=""/>
    <tripinfo id="172" depart="176.60" departLane="303270079#1_0" departPos="5.10" departSpeed="0.00" departDelay="4.60" arrival="195.70" arrivalLane="927798098#2_0" arrivalPos="92.99" arrivalSpeed="28.78" duration="19.10" routeLength="347.38" waitingTime="0.00" waitingCount="0" stopTime="0.00" timeLoss="7.01" rerouteNo="0" devices="tripinfo_172" vType="DEFAULT_VEHTYPE" speedFactor="1.04" vaporized=""/>
    <tripinfo id="98" depart="99.00" departLane="608814650#1_0" departPos="5.10" departSpeed="0.00" departDelay="1.00" arrival="197.10" arrivalLane="297396114#7_1" arrivalPos="130.75" arrivalSpeed="15.63" duration="98.10" routeLength="1031.67" waitingTime="6.90" waitingCount="1" stopTime="0.00" timeLoss="39.97" rerouteNo="0" devices="tripinfo_98" vType="DEFAULT_VEHTYPE" speedFactor="1.15" vaporized=""/>
    <tripinfo id="152" depart="152.00" departLane="303265560#3_0" departPos="2.37" departSpeed="0.00" departDelay="0.00" arrival="197.90" arrivalLane="303265560#1_0" arrivalPos="51.47" arrivalSpeed="14.31" duration="45.90" routeLength="218.24" waitingTime="13.80" waitingCount="1" stopTime="0.00" timeLoss="28.29" rerouteNo="0" devices="tripinfo_152" vType="DEFAULT_VEHTYPE" speedFactor="1.04" vaporized=""/>
    <tripinfo id="122" depart="122.00" departLane="303265565#6_0" departPos="5.10" departSpeed="0.00" departDelay="0.00" arrival="199.20" arrivalLane="927798096#10_1" arrivalPos="58.53" arrivalSpeed="27.87" duration="77.20" routeLength="1403.46" waitingTime="0.00" waitingCount="0" stopTime="0.00" timeLoss="13.09" rerouteNo="0" devices="tripinfo_122" vType="DEFAULT_VEHTYPE" speedFactor="1.07" vaporized=""/>
    <tripinfo id="83" depart="83.00" departLane="303265566#5_0" departPos="5.10" departSpeed="0.00" departDelay="0.00" arrival="201.50" arrivalLane="849995889#7_0" arrivalPos="169.08" arrivalSpeed="26.02" duration="118.50" routeLength="1924.08" waitingTime="7.50" waitingCount="1" stopTime="0.00" timeLoss="29.15" rerouteNo="0" devices="tripinfo_83" vType="DEFAULT_VEHTYPE" speedFactor="0.94" vaporized=""/>
    <tripinfo id="119" depart="119.00" departLane="609360791#2_0" departPos="5.10" departSpeed="0.00" departDelay="0.00" arrival="205.60" arrivalLane="610344813#1-AddedOnRampEdge_1" arrivalPos="94.42" arrivalSpeed="26.79" duration="86.60" routeLength="1484.10" waitingTime="0.00" waitingCount="0" stopTime="0.00" timeLoss="27.18" rerouteNo="0" devices="tripinfo_119" vType="DEFAULT_VEHTYPE" speedFactor="0.97" vaporized=""/>
    <tripinfo id="143" depart="153.50" departLane="927798098#17_0" departPos="5.10" departSpeed="0.00" departDelay="10.50" arrival="207.40" arrivalLane="303137276#1_0" arrivalPos="70.28" arrivalSpeed="15.89" duration="53.90" routeLength="480.78" waitingTime="13.30" waitingCount="2" stopTime="0.00" timeLoss="33.01" rerouteNo="0" devices="tripinfo_143" vType="DEFAULT_VEHTYPE" speedFactor="1.15" vaporized=""/>
    <tripinfo id="176" depart="176.00" departLane="928691531#2_0" departPos="5.10" departSpeed="0.00" departDelay="0.00" arrival="208.00" arrivalLane="303137278#2_0" arrivalPos="52.55" arrivalSpeed="14.84" duration="32.00" routeLength="356.89" waitingTime="0.00" waitingCount="0" stopTime="0.00" timeLoss="8.62" rerouteNo="0" devices="tripinfo_176" vType="DEFAULT_VEHTYPE" speedFactor="1.07" vaporized=""/>
    <tripinfo id="3" depart="7.90" departLane="297396114#0_0" departPos="5.10" departSpeed="0.00" departDelay="4.90" arrival="210.30" arrivalLane="297396114#9_1" arrivalPos="20.76" arrivalSpeed="28.25" duration="202.40" routeLength="693.78" waitingTime="149.10" waitingCount="2" stopTime="0.00" timeLoss="179.26" rerouteNo="0" devices="tripinfo_3" vType="DEFAULT_VEHTYPE" speedFactor="1.08" vaporized=""/>
    <tripinfo id="4" depart="10.50" departLane="297396114#0_0" departPos="5.10" departSpeed="0.00" departDelay="6.50" arrival="211.30" arrivalLane="297396114#9_1" arrivalPos="20.76" arrivalSpeed="28.59" duration="200.80" routeLength="693.78" waitingTime="143.70" waitingCount="2" stopTime="0.00" timeLoss="176.48" rerouteNo="0" devices="tripinfo_4" vType="DEFAULT_VEHTYPE" speedFactor="1.03" vaporized=""/>
    <tripinfo id="107" depart="107.00" departLane="932248828#0_0" departPos="5.10" departSpeed="0.00" departDelay="0.00" arrival="212.50" arrivalLane="932248828#8_0" arrivalPos="98.81" arrivalSpeed="23.12" duration="105.50" routeLength="1095.10" waitingTime="30.20" waitingCount="1" stopTime="0.00" timeLoss="58.20" rerouteNo="0" devices="tripinfo_107" vType="DEFAULT_VEHTYPE" speedFactor="0.83" vaporized=""/>
    <tripinfo id="5" depart="13.20" departLane="297396114#0_0" departPos="5.10" departSpeed="0.00" departDelay="8.20" arrival="212.70" arrivalLane="297396114#9_1" arrivalPos="20.76" arrivalSpeed="23.09" duration="199.50" routeLength="693.78" waitingTime="139.60" waitingCount="2" stopTime="0.00" timeLoss="169.40" rerouteNo="0" devices="tripinfo_5" vType="DEFAULT_VEHTYPE" speedFactor="0.83" vaporized=""/>
    <tripinfo id="128" depart="128.60" departLane="303137034_0" departPos="5.10" departSpeed="0.00" departDelay="0.60" arrival="214.30" arrivalLane="303265565#8_0" arrivalPos="216.50" arrivalSpeed="12.84" duration="85.70" routeLength="1237.37" waitingTime="0.00" waitingCount="0" stopTime="0.00" timeLoss="13.65" rerouteNo="0" devices="tripinfo_128" vType="DEFAULT_VEHTYPE" speedFactor="0.93" vaporized=""/>
    <tripinfo id="151" depart="152.10" departLane="927798098#15_0" departPos="5.10" departSpeed="0.00" departDelay="1.10" arrival="215.50" arrivalLane="609360791#0_0" arrivalPos="25.65" arrivalSpeed="13.30" duration="63.40" routeLength="615.74" waitingTime="8.70" waitingCount="1" stopTime="0.00" timeLoss="31.47" rerouteNo="0" devices="tripinfo_151" vType="DEFAULT_VEHTYPE" speedFactor="0.96" vaporized=""/>
    <tripinfo id="155" depart="155.00" departLane="927798098#7_0" departPos="5.10" departSpeed="0.00" departDelay="0.00" arrival="216.20" arrivalLane="303265565#7_0" arrivalPos="125.48" arrivalSpeed="15.55" duration="61.20" routeLength="822.67" waitingTime="0.00" waitingCount="0" stopTime="0.00" timeLoss="19.32" rerouteNo="0" devices="tripinfo_155" vType="DEFAULT_VEHTYPE" speedFactor="1.12" vaporized=""/>
    <tripinfo id="137" depart="137.00" departLane="303265560#1_0" departPos="5.10" departSpeed="0.00" departDelay="0.00" arrival="216.40" arrivalLane="303137278#2_0" arrivalPos="52.55" arrivalSpeed="14.87" duration="79.40" routeLength="613.60" waitingTime="21.00" waitingCount="2" stopTime="0.00" timeLoss="35.68" rerouteNo="0" devices="tripinfo_137" vType="DEFAULT_VEHTYPE" speedFactor="1.07" vaporized=""/>
    <tripinfo id="124" depart="124.00" departLane="849995889#9_0" departPos="5.10" departSpeed="0.00" departDelay="0.00" arrival="217.10" arrivalLane="303270063_0" arrivalPos="69.78" arrivalSpeed="8.69" duration="93.10" routeLength="1539.15" waitingTime="0.00" waitingCount="0" stopTime="0.00" timeLoss="34.93" rerouteNo="0" devices="tripinfo_124" vType="DEFAULT_VEHTYPE" speedFactor="1.03" vaporized=""/>
    <tripinfo id="190" depart="190.00" departLane="927798096#2_0" departPos="5.10" departSpeed="0.00" departDelay="0.00" arrival="218.80" arrivalLane="303270063_0" arrivalPos="69.78" arrivalSpeed="12.08" duration="28.80" routeLength="463.34" waitingTime="0.00" waitingCount="0" stopTime="0.00" timeLoss="13.40" rerouteNo="0" devices="tripinfo_190" vType="DEFAULT_VEHTYPE" speedFactor="1.13" vaporized=""/>
    <tripinfo id="170" depart="170.00" departLane="927798098#10_0" departPos="5.10" departSpeed="0.00" departDelay="0.00" arrival="219.80" arrivalLane="303265566#4_0" arrivalPos="38.27" arrivalSpeed="13.32" duration="49.80" routeLength="564.39" waitingTime="0.00" waitingCount="0" stopTime="0.00" timeLoss="13.18" rerouteNo="0" devices="tripinfo_170" vType="DEFAULT_VEHTYPE" speedFactor="0.97" vaporized=""/>
    <tripinfo id="147" depart="147.00" departLane="927798096#4_0" departPos="5.10" departSpeed="0.00" departDelay="0.00" arrival="226.10" arrivalLane="608814650#1_0" arrivalPos="14.21" arrivalSpeed="13.02" duration="79.10" routeLength="1440.29" waitingTime="0.00" waitingCount="0" stopTime="0.00" timeLoss="27.73" rerouteNo="0" devices="tripinfo_147" vType="DEFAULT_VEHTYPE" speedFactor="1.12" vaporized=""/>